# vtk DataFile Version 2.0
channel, Created by Gmsh
ASCII
DATASET UNSTRUCTURED_GRID
POINTS 257 double
0 0 0
2 0 0
2 1 0
0 1 0
0.5 0.45 0
0.55 0.5 0
0.5 0.55 0
0.45 0.5 0
0.1999999999996293 0 0
0.3999999999991157 0 0
0.5999999999985328 0 0
0.7999999999979498 0 0
0.9999999999973885 0 0
1.199999999997894 0 0
1.39999999999842 0 0
1.599999999998947 0 0
1.799999999999474 0 0
2 0.1999999999995579 0
2 0.3999999999989749 0
2 0.5999999999989468 0
2 0.7999999999994734 0
1.799999999999167 1 0
1.6 1 0
1.400000000001387 1 0
1.200000000002774 1 0
1.000000000004117 1 0
0.8000000000033287 1 0
0.6000000000024965 1 0
0.4000000000016644 1 0
0.200000000000832 1 0
0 0.7999999999999998 0
0 0.6000000000013869 0
0 0.4000000000016644 0
0 0.2000000000008322 0
0.5097545161924893 0.4509607359980753 0
0.5191341717729272 0.4538060234385032 0
0.5277785117830031 0.4584265194730877 0
0.5353553391678829 0.4646446610492281 0
0.541573480674846 0.4722214884383953 0
0.5461939766745191 0.4808658284999327 0
0.5490392640317109 0.4902454839572561 0
0.5490392640025176 0.5097545161895086 0
0.5461939765743508 0.519134171741895 0
0.5415734805639094 0.527778511727633 0
0.5353553390164304 0.5353553391022244 0
0.5277785116261851 0.5415734806316949 0
0.5191341716738749 0.5461939766025257 0
0.509754516168154 0.5490392640067653 0
0.4902454838992664 0.5490392640201761 0
0.4808658283202135 0.546193976600077 0
0.4722214882843436 0.541573480571912 0
0.4646446608634986 0.5353553389821535 0
0.4584265193732943 0.5277785116336519 0
0.4538060233936443 0.5191341716646284 0
0.4509607359907996 0.5097545161559116 0
0.4509607359822213 0.4902454838872147 0
0.4538060233981304 0.4808658283245413 0
0.4584265194532447 0.472221488246694 0
0.4646446610407679 0.4646446608405774 0
0.4722214884416925 0.4584265193229509 0
0.480865828480482 0.4538060233335377 0
0.4902454839615788 0.4509607359674293 0
0.8960202768168803 0.1676530369588156 0
0.9172088615719209 0.8726572143875505 0
1.484520321123316 0.834135017490035 0
1.298333155187168 0.1716833477383043 0
0.1551796626003007 0.6996155638553299 0
0.2904562211509629 0.1297088427986428 0
1.834284688297408 0.5110277208245304 0
0.4892941521617542 0.8405396666852919 0
1.695012895291069 0.1635981007598403 0
0.3444025296415358 0.8431781392933024 0
0.4017965417971451 0.7104955728272102 0
0.6881942643783322 0.8770696310844178 0
0.5970851649161228 0.7170214952603428 0
0.1355178551658042 0.5172048687183028 0
0.2826500372321357 0.6281297169639 0
0.1560452844009911 0.3234666891652789 0
0.2866110251556026 0.4467851315428532 0
0.48830867153886 0.1248534602146441 0
0.3967322609015578 0.2788447893744742 0
0.6677325640308904 0.1632198622709463 0
0.5534753938362069 0.2826764047784042 0
1.099058905332409 0.1659255050853722 0
1.170160161824604 0.3513984292550326 0
1.388218281000853 0.3445320432059459 0
1.286450767337652 0.5064011895788793 0
1.130528170217326 0.5197486300972101 0
1.503365985379774 0.5143050650357591 0
1.192422504184752 0.6642878629680504 0
0.9897695591367534 0.3126556930024691 0
0.9014177873043636 0.5041731263155725 0
1.011549200582881 0.6144598671922151 0
0.8392990637035509 0.5948182391209987 0
0.8077780040386002 0.4937716846891361 0
0.7355552994088335 0.6164198941960475 0
0.6892912096401298 0.5103160965943091 0
0.8460261329417508 0.3281552533783018 0
0.7715742014941834 0.6965235962016563 0
1.077212754682534 0.812796479788134 0
1.600367597344571 0.3275391667194665 0
1.299109504298937 0.8285047070529274 0
1.830118645012044 0.6998730958988459 0
1.496988654803504 0.1678921097372595 0
1.679511614028978 0.6156530707010985 0
0.7539510878876765 0.2329706119714031 0
0.7141426460237595 0.3520963210287038 0
1.684922894570106 0.8177579688477833 0
1.810056816960541 0.3149905505191113 0
0.1598004128212246 0.1520374405793439 0
1.38258590471891 0.6660436462180561 0
0.1678836341290016 0.8472850554885478 0
0.2864250602407696 0.7322901430005083 0
0.6856000569841827 0.6801216850925679 0
0.6375346983877349 0.5949606721947276 0
0.7777720902016603 0.4111967615948759 0
0.7069040264203408 0.4208219310993343 0
0.6354945040754372 0.3578542938297933 0
0.617983403095388 0.4492931585877622 0
0.5581283969237874 0.5067158753283991 0
0.5610786797445226 0.4825163517372609 0
0.6417312654606194 0.2766540766934527 0
0.5442823264494735 0.356331022961505 0
0.5375271481196873 0.4557727649611497 0
0.5167674648237239 0.4403478636592711 0
0.5865324625690906 0.3312723272092711 0
0.4928345671906819 0.3339022576505087 0
0.478308000304263 0.3820406504719306 0
0.483300617924094 0.4416319837758484 0
0.5844334682419712 0.4077305655932276 0
0.5819396538635735 0.4505500250133867 0
0.5986939110588054 0.4823487532067211 0
0.5417218309303323 0.4085105831353204 0
0.6374211517879732 0.4876626609588448 0
0.6165356227495834 0.5166187184637061 0
0.5566601961726284 0.4350290732595934 0
0.5867655166202215 0.5125814111271022 0
0.5887173530747827 0.5413127113618492 0
0.5528303996915128 0.5293157266657209 0
0.557519260698854 0.51786278849524 0
0.5693751801289848 0.5260730521976593 0
0.5665552117616447 0.5633576816610359 0
0.5373459848246548 0.5442315034427758 0
0.5462829362903755 0.5385705872121005 0
0.5965900125434814 0.576812639806221 0
0.5647382090798725 0.5940807092113261 0
0.5445264304475664 0.5724413979434279 0
0.5286153416947317 0.601356548234374 0
0.5176289376046622 0.5551934597490853 0
0.5600030411645971 0.6335689728395102 0
0.5162620254872206 0.6474021755214653 0
0.4826421019382192 0.6116420430976982 0
0.4839444423027473 0.5576056574303732 0
0.4666026586694481 0.6587576878097053 0
0.4302658230410333 0.6178193911564148 0
0.5086416495217655 0.7291818267093695 0
0.4515111723949789 0.5823822982935292 0
0.4021446114188146 0.576479533861352 0
0.4626118911083239 0.5434992383285013 0
0.367549955545085 0.632760334766171 0
0.4708893113917355 0.551797042692957 0
0.4549738651545053 0.5369519938027455 0
0.4530610680265719 0.5529632837124882 0
0.4369637401846959 0.53875681070577 0
0.4464403410056959 0.5266265572315356 0
0.430843136720765 0.5194947294903537 0
0.5024095327424535 0.5833123130356889 0
0.4719168639936887 0.5673697225358535 0
0.530561733174341 0.5539318281014041 0
0.5768256698731565 0.4907271104194623 0
0.5216010602778143 0.571077859675218 0
0.5984703289064617 0.6172877833988223 0
0.5475709704210532 0.5526085057952173 0
0.560730587273979 0.4559596111009995 0
0.5347202487810339 0.4321205911834581 0
0.5157188141481142 0.4164596258517294 0
0.5026080819748135 0.4300308470208609 0
0.4919055352680975 0.408301050234038 0
0.5107951790484937 0.3842575317175053 0
0.4595469126622588 0.4129466329867163 0
0.4429812911479383 0.471694069409242 0
0.4606214276398038 0.4544715310928674 0
0.4401986685411097 0.371828858404862 0
0.4121007718434895 0.406508929803762 0
0.3944134298874367 0.3537675597465628 0
0.4311032848567767 0.4366338261343613 0
0.3904478992601218 0.4437859782523441 0
0.4171259321246913 0.4636831788096798 0
0.3834244579267291 0.4788461568245159 0
0.4406366529543149 0.4946837045395001 0
0.4435585331866316 0.484689491367762 0
0.4294079624505528 0.4859583706783113 0
0.4715454859822797 0.4470054425150997 0
0.4720554177776114 0.4337322904985095 0
0.4565549898977559 0.4398473098846432 0
0.4444574104678052 0.4542941360803053 0
0.4082735869979698 0.502251770524464 0
0.3656293510191332 0.5276722914171549 0
0.4121489717595306 0.5371751047425652 0
0.358919467565926 0.4054741913656992 0
0.3262259535880663 0.3481125584424027 0
0.6291782005225237 0.5528611682893466 0
0.6817240816716216 0.5645864472997576 0
0.4915766436078109 0.5706501133547444 0
0.2807112838907214 0.2566904710707623 0
0.474132242727353 0.2459706748139528 0
0.4295929518368785 0.5581757698945635 0
0.5723246419554403 0.4719848877138941 0
0.5547243311205049 0.4709053421305354 0
0.5464425344889772 0.4613755493342405 0
0.4943261911625911 0.5575053291585244 0
0.5055907839289012 0.5613363531206176 0
0.5676858731621361 0.1882980457993246 0
0.5046826073048299 0.4422426863924 0
0.4948557894910858 0.4401382308271549 0
0.5627510411662262 0.4949392787730459 0
0.4287299153041803 0.5023434682635496 0
0.568560844235205 0.5081499193901514 0
0.6526827377600143 0.5230433521108815 0
0.4538141322266233 0.4626221118264614 0
0.342584505414802 0.5798368679268803 0
0.2949485718588417 0.534142462625824 0
0.4371287032925073 0.3173444622248249 0
0.5550275794760789 0.6804799704012586 0
0.9050261430556141 0.727679372399412 0
0.7915218047493309 0.8223922658528015 0
0.3887439239546546 0.1890517617483598 0
1.853589838485553 0.8535898384856353 0
1.853589838485675 0.1464101615140658 0
0.7337048635268464 0.4730354152542335 0
0.4448165892718361 0.5161438508780529 0
0.4420327092482757 0.5057092798478358 0
0.3427888262561734 0.4638125408399617 0
0.4871909712745162 0.4264404608925697 0
0.6716771192888598 0.4591395240924939 0
0.5442322772511949 0.4475694867508349 0
0.8508127291838656 0.4260453044865646 0
1.531965287313792 0.6798964866842504 0
0.5896671827067766 0.6580072641479054 0
0.5606051996013319 0.5427939547098026 0
0.5917237648288461 0.8207060667971989 0
0.4360337182805502 0.7808488013787934 0
0.9200043414591417 0.399053641712993 0
0.74521435032948 0.5395630771555711 0
0.7528440833593989 0.1097256397064863 0
0.1866829444998053 0.4328683945734594 0
1.687142699305065 0.4563587038173441 0
0.687616542891833 0.7689724567148307 0
0.6377497990706227 0.6416780988395936 0
0.6791934252942768 0.618321579199259 0
0.6551058611909593 0.4078226323718858 0
0.18119842686034 0.6033797731837343 0
0.530026637088595 0.4480072082443841 0
0.3346053987037838 0.6759189418894473 0
1.01044557777812 0.4527524854683569 0
0.4799690068563428 0.5845607745017922 0
0.2472552983070373 0.3615846489589513 0

CELLS 514 1994
2 0 8
2 8 9
2 9 10
2 10 11
2 11 12
2 12 13
2 13 14
2 14 15
2 15 16
2 16 1
2 1 17
2 17 18
2 18 19
2 19 20
2 20 2
2 2 21
2 21 22
2 22 23
2 23 24
2 24 25
2 25 26
2 26 27
2 27 28
2 28 29
2 29 3
2 3 30
2 30 31
2 31 32
2 32 33
2 33 0
2 4 34
2 34 35
2 35 36
2 36 37
2 37 38
2 38 39
2 39 40
2 40 5
2 5 41
2 41 42
2 42 43
2 43 44
2 44 45
2 45 46
2 46 47
2 47 6
2 6 48
2 48 49
2 49 50
2 50 51
2 51 52
2 52 53
2 53 54
2 54 7
2 7 55
2 55 56
2 56 57
2 57 58
2 58 59
2 59 60
2 60 61
2 61 4
3 91 93 94
3 130 131 207
3 127 126 178
3 126 122 178
3 174 124 175
3 120 169 215
3 175 124 176
3 74 155 223
3 0 8 109
3 92 99 224
3 129 118 130
3 77 204 256
3 94 93 243
3 155 74 240
3 153 72 154
3 79 10 212
3 92 89 99
3 27 69 240
3 67 9 226
3 147 151 166
3 176 124 213
3 69 71 241
3 33 0 109
3 77 109 204
3 8 67 109
3 91 94 236
3 77 33 109
3 62 90 97
3 90 84 254
3 75 32 245
3 136 140 217
3 66 31 251
3 82 122 126
3 5 40 215
3 126 127 182
3 69 28 71
3 180 187 195
3 27 28 69
3 71 72 241
3 30 31 66
3 8 9 67
3 78 221 245
3 62 97 105
3 187 180 191
3 158 160 162
3 122 125 129
3 84 87 254
3 136 137 140
3 62 12 83
3 122 129 132
3 32 33 77
3 193 179 233
3 105 97 106
3 130 118 131
3 207 120 208
3 100 70 108
3 168 142 172
3 66 76 112
3 124 174 252
3 62 83 90
3 154 72 159
3 3 30 111
3 10 81 212
3 109 67 204
3 91 92 93
3 30 66 111
3 187 191 196
3 140 137 239
3 146 147 170
3 99 63 224
3 204 200 256
3 9 10 79
3 31 32 75
3 170 166 211
3 72 153 155
3 9 79 226
3 146 168 172
3 93 95 243
3 221 76 251
3 72 71 112
3 100 108 246
3 105 106 121
3 169 120 207
3 72 112 253
3 11 12 62
3 25 26 63
3 156 162 167
3 99 89 101
3 29 3 111
3 31 75 251
3 26 73 225
3 32 77 245
3 83 84 90
3 73 27 240
3 106 97 115
3 76 66 251
3 69 155 240
3 26 27 73
3 188 197 232
3 74 238 248
3 147 166 170
3 122 82 125
3 111 66 112
3 24 99 101
3 104 102 107
3 104 107 237
3 221 75 245
3 148 170 211
3 39 38 208
3 199 78 200
3 28 29 71
3 87 89 92
3 96 133 234
3 75 221 251
3 63 26 225
3 12 13 83
3 13 65 83
3 25 63 99
3 197 221 232
3 168 146 170
3 80 205 222
3 83 65 84
3 36 35 252
3 155 69 241
3 112 76 253
3 117 106 250
3 80 184 200
3 84 86 87
3 106 116 250
3 118 129 250
3 81 105 121
3 70 100 103
3 179 177 233
3 98 224 225
3 15 70 103
3 151 156 255
3 132 175 178
3 205 126 222
3 14 15 103
3 147 150 151
3 71 29 111
3 92 91 254
3 133 96 218
3 87 86 89
3 156 157 206
3 84 85 86
3 121 82 212
3 23 24 101
3 119 215 217
3 179 193 194
3 157 197 198
3 129 130 135
3 18 19 68
3 15 16 70
3 13 14 65
3 19 20 102
3 68 19 102
3 22 23 64
3 64 23 101
3 40 120 215
3 235 123 252
3 205 80 226
3 65 14 103
3 119 5 215
3 84 65 85
3 141 145 146
3 229 96 234
3 132 129 135
3 86 85 88
3 100 85 103
3 71 111 112
3 11 62 244
3 88 85 100
3 81 10 244
3 85 65 103
3 24 25 99
3 68 102 104
3 64 101 110
3 21 22 107
3 17 18 108
3 97 90 242
3 101 89 110
3 126 182 222
3 151 154 156
3 215 169 217
3 131 134 136
3 141 146 172
3 125 117 129
3 137 141 239
3 107 64 237
3 131 133 134
3 131 118 133
3 22 64 107
3 18 68 108
3 89 86 110
3 166 203 211
3 224 63 225
3 159 76 220
3 185 179 194
3 104 88 246
3 86 88 110
3 88 100 246
3 2 21 227
3 1 17 228
3 16 1 228
3 20 2 227
3 76 159 253
3 122 132 178
3 78 199 232
3 120 39 208
3 42 41 139
3 46 45 168
3 44 43 143
3 113 74 248
3 95 93 98
3 4 61 214
3 162 156 206
3 10 11 244
3 60 59 192
3 106 117 121
3 131 136 169
3 80 200 204
3 165 163 198
3 108 68 246
3 6 47 211
3 184 80 222
3 50 49 160
3 38 37 209
3 72 155 241
3 186 185 187
3 151 153 154
3 106 115 116
3 214 128 233
3 132 174 175
3 95 98 113
3 62 105 244
3 98 225 247
3 221 78 232
3 95 113 249
3 58 57 219
3 164 165 230
3 136 134 137
3 141 144 145
3 113 98 247
3 87 92 254
3 151 150 153
3 187 185 195
3 35 124 252
3 200 78 256
3 156 154 157
3 115 94 229
3 127 177 179
3 98 93 224
3 54 53 230
3 82 121 125
3 183 179 185
3 143 138 239
3 180 195 219
3 81 121 212
3 116 115 229
3 123 36 252
3 195 181 219
3 121 117 125
3 88 104 237
3 80 204 226
3 17 108 228
3 21 107 227
3 93 92 224
3 203 152 210
3 40 39 120
3 41 5 119
3 82 126 205
3 64 110 237
3 174 235 252
3 35 34 124
3 173 207 208
3 131 169 207
3 169 136 217
3 61 60 128
3 102 20 227
3 70 16 228
3 41 119 139
3 159 72 253
3 43 42 138
3 182 179 183
3 165 196 216
3 161 163 164
3 37 36 123
3 202 96 243
3 47 46 148
3 45 44 142
3 188 187 196
3 110 88 237
3 182 184 222
3 208 38 209
3 135 130 173
3 144 137 201
3 49 48 152
3 43 138 143
3 107 102 227
3 108 70 228
3 183 185 186
3 116 229 234
3 196 191 216
3 34 4 213
3 146 145 147
3 61 128 214
3 45 142 168
3 127 179 182
3 68 104 246
3 141 137 144
3 198 163 206
3 197 157 220
3 129 117 250
3 202 201 218
3 48 6 210
3 53 52 164
3 52 51 161
3 59 58 181
3 105 81 244
3 51 50 158
3 175 176 177
3 196 165 198
3 128 60 192
3 74 113 247
3 132 135 174
3 164 163 165
3 96 229 243
3 156 167 255
3 167 152 203
3 137 134 201
3 140 139 217
3 138 42 139
3 147 149 150
3 94 115 236
3 128 193 233
3 57 56 180
3 37 123 209
3 133 118 234
3 148 46 168
3 142 44 143
3 47 148 211
3 138 140 239
3 134 133 218
3 153 150 155
3 203 210 211
3 79 205 226
3 194 181 195
3 145 144 171
3 55 7 189
3 177 176 233
3 182 183 184
3 213 4 214
3 225 73 247
3 96 202 218
3 114 144 201
3 49 152 160
3 114 201 202
3 124 34 213
3 115 97 236
3 161 162 163
3 59 181 192
3 56 55 190
3 82 205 212
3 7 54 231
3 147 145 149
3 197 220 221
3 139 119 217
3 183 186 199
3 210 6 211
3 186 188 232
3 157 154 159
3 158 50 160
3 203 166 255
3 230 165 231
3 175 177 178
3 199 186 232
3 150 149 223
3 186 187 188
3 181 58 219
3 135 173 235
3 144 114 171
3 157 198 206
3 152 48 210
3 53 164 230
3 166 151 255
3 193 192 194
3 57 180 219
3 240 74 247
3 185 194 195
3 138 139 140
3 177 127 178
3 142 143 172
3 149 145 171
3 52 161 164
3 184 199 200
3 201 134 218
3 51 158 161
3 173 130 207
3 148 168 170
3 128 192 193
3 197 196 198
3 204 67 226
3 242 90 254
3 155 150 223
3 54 230 231
3 163 162 206
3 216 189 231
3 174 135 235
3 160 152 167
3 184 183 199
3 167 203 255
3 95 202 243
3 234 118 250
3 220 76 221
3 236 97 242
3 188 196 197
3 161 158 162
3 205 79 212
3 192 181 194
3 78 245 256
3 157 159 220
3 209 123 235
3 180 56 190
3 229 94 243
3 165 216 231
3 55 189 190
3 189 7 231
3 223 149 238
3 149 171 238
3 190 189 191
3 191 189 216
3 172 143 239
3 114 202 249
3 141 172 239
3 176 214 233
3 176 213 214
3 173 208 209
3 116 234 250
3 171 114 248
3 91 236 242
3 91 242 254
3 238 171 248
3 202 95 249
3 173 209 235
3 73 240 247
3 248 114 249
3 113 248 249
3 74 223 238
3 245 77 256
3 162 160 167
3 180 190 191

CELL_TYPES 514
3
3
3
3
3
3
3
3
3
3
3
3
3
3
3
3
3
3
3
3
3
3
3
3
3
3
3
3
3
3
3
3
3
3
3
3
3
3
3
3
3
3
3
3
3
3
3
3
3
3
3
3
3
3
3
3
3
3
3
3
3
3
5
5
5
5
5
5
5
5
5
5
5
5
5
5
5
5
5
5
5
5
5
5
5
5
5
5
5
5
5
5
5
5
5
5
5
5
5
5
5
5
5
5
5
5
5
5
5
5
5
5
5
5
5
5
5
5
5
5
5
5
5
5
5
5
5
5
5
5
5
5
5
5
5
5
5
5
5
5
5
5
5
5
5
5
5
5
5
5
5
5
5
5
5
5
5
5
5
5
5
5
5
5
5
5
5
5
5
5
5
5
5
5
5
5
5
5
5
5
5
5
5
5
5
5
5
5
5
5
5
5
5
5
5
5
5
5
5
5
5
5
5
5
5
5
5
5
5
5
5
5
5
5
5
5
5
5
5
5
5
5
5
5
5
5
5
5
5
5
5
5
5
5
5
5
5
5
5
5
5
5
5
5
5
5
5
5
5
5
5
5
5
5
5
5
5
5
5
5
5
5
5
5
5
5
5
5
5
5
5
5
5
5
5
5
5
5
5
5
5
5
5
5
5
5
5
5
5
5
5
5
5
5
5
5
5
5
5
5
5
5
5
5
5
5
5
5
5
5
5
5
5
5
5
5
5
5
5
5
5
5
5
5
5
5
5
5
5
5
5
5
5
5
5
5
5
5
5
5
5
5
5
5
5
5
5
5
5
5
5
5
5
5
5
5
5
5
5
5
5
5
5
5
5
5
5
5
5
5
5
5
5
5
5
5
5
5
5
5
5
5
5
5
5
5
5
5
5
5
5
5
5
5
5
5
5
5
5
5
5
5
5
5
5
5
5
5
5
5
5
5
5
5
5
5
5
5
5
5
5
5
5
5
5
5
5
5
5
5
5
5
5
5
5
5
5
5
5
5
5
5
5
5
5
5
5
5
5
5
5
5
5
5
5
5
5
5
5
5
5
5
5
5
5
5
5
5
5
5
5
5
5
5
5
5
5
5
5
5
5
5
5
5
5
5
5
5
5
5
5
5
5
5
5
5
5
5
5
5
5
5
5
5
5
5
5
5
5
5
5
5
5
5

CELL_DATA 514
SCALARS CellEntityIds int 1
LOOKUP_TABLE default
13
13
13
13
13
13
13
13
13
13
12
12
12
12
12
13
13
13
13
13
13
13
13
13
13
11
11
11
11
11
21
21
21
21
21
21
21
21
21
21
21
21
21
21
21
21
21
21
21
21
21
21
21
21
21
21
21
21
21
21
21
21
31
31
31
31
31
31
31
31
31
31
31
31
31
31
31
31
31
31
31
31
31
31
31
31
31
31
31
31
31
31
31
31
31
31
31
31
31
31
31
31
31
31
31
31
31
31
31
31
31
31
31
31
31
31
31
31
31
31
31
31
31
31
31
31
31
31
31
31
31
31
31
31
31
31
31
31
31
31
31
31
31
31
31
31
31
31
31
31
31
31
31
31
31
31
31
31
31
31
31
31
31
31
31
31
31
31
31
31
31
31
31
31
31
31
31
31
31
31
31
31
31
31
31
31
31
31
31
31
31
31
31
31
31
31
31
31
31
31
31
31
31
31
31
31
31
31
31
31
31
31
31
31
31
31
31
31
31
31
31
31
31
31
31
31
31
31
31
31
31
31
31
31
31
31
31
31
31
31
31
31
31
31
31
31
31
31
31
31
31
31
31
31
31
31
31
31
31
31
31
31
31
31
31
31
31
31
31
31
31
31
31
31
31
31
31
31
31
31
31
31
31
31
31
31
31
31
31
31
31
31
31
31
31
31
31
31
31
31
31
31
31
31
31
31
31
31
31
31
31
31
31
31
31
31
31
31
31
31
31
31
31
31
31
31
31
31
31
31
31
31
31
31
31
31
31
31
31
31
31
31
31
31
31
31
31
31
31
31
31
31
31
31
31
31
31
31
31
31
31
31
31
31
31
31
31
31
31
31
31
31
31
31
31
31
31
31
31
31
31
31
31
31
31
31
31
31
31
31
31
31
31
31
31
31
31
31
31
31
31
31
31
31
31
31
31
31
31
31
31
31
31
31
31
31
31
31
31
31
31
31
31
31
31
31
31
31
31
31
31
31
31
31
31
31
31
31
31
31
31
31
31
31
31
31
31
31
31
31
31
31
31
31
31
31
31
31
31
31
31
31
31
31
31
31
31
31
31
31
31
31
31
31
31
31
31
31
31
31
31
31
31
31
31
31
31
31
31
31
31
31
31
31
31
31
31
31
31
31
31
31
31
31
31
31
31
31
31
31
31
31
31
31
